% Model:              3D_3lay_aniso_h_slope2.mph
% Version:            COMSOL 5.2.1.152
% Date:               Jul 6 2018, 09:19
% Table:              Probe Table 1 - 
% Time (s)               Temperature (K), Point: (0, 0, 0)Temperature (K), Point: (60, 0, 0)Temperature (K), Point: (-60, 0, 0)Temperature (K), Point: (0, 60, 0)Temperature (K), Point: (0, -60, 0)Temperature (K), Point: (0, 0, 60)Temperature (K), Point: (60, 0, 60)Temperature (K), Point: (-60, 0, 60)Temperature (K), Point: (0, 60, 60)Temperature (K), Point: (0, -60, 60)Temperature (K), Point: (0, 0, 30.5)Temperature (K), Point: (60, 0, 30.5)Temperature (K), Point: (-60, 0, 30.5)Temperature (K), Point: (0, 60, 30.5)Temperature (K), Point: (0, -60, 30.5)
0                        293.1503268075819        293.15019404911175       293.15011691127          293.1502447284948        293.150175495497         293.15000015090084       293.15000007357276       293.15000032367925       293.15000009605785       293.1500001229712        293.15000945091356       293.15000642092457       293.1500063393795        293.15000655365367       293.150008030958
0.001                    293.31929561656693       293.25096895129235       293.2113012726272        293.27676139181483       293.2416782008639        293.150075033868         293.1500365442122        293.1501622835277        293.15004517270614       293.15005902543425       293.15449503862914       293.15349170733754       293.1535045331376        293.1532109783311        293.153589412146
0.002                    293.48439313693655       293.34991225202          293.27188554681726       293.4003593835378        293.3319087086845        293.1501448842087        293.1500705144521        293.15031468992976       293.15008446129116       293.15011187142466       293.1584584431464        293.1570752012982        293.15715640192855       293.1561466222752        293.15651274546747
0.004                    293.8047200889764        293.5430542246057        293.3914403896729        293.64010440589925       293.5090095953354        293.15027242372645       293.1501323957057        293.1505958190389        293.1501495804142        293.1502038615708        293.1651543366229        293.16446740398015       293.1648069244237        293.16136964270413       293.1608912241292
0.008                    294.4037280701905        293.9090235685052        293.6236216616843        294.08804247241824       293.8486368364535        293.1504793356311        293.15023202219265       293.15105953606485       293.15023030313324       293.15033999946905       293.17388427265365       293.1801149294582        293.1813635489677        293.16925455895915       293.16468797996106
0.016                    295.4567408629341        294.5683596962419        294.0630302060566        294.8734344941647        294.4744919003432        293.1507445336589        293.1503561625706        293.15165460282844       293.15026221052085       293.15049458992314       293.17836068771385       293.2137761147065        293.2175378702166        293.1772871194455        293.16153471145725
0.032                    297.13308997467135       295.6616887633395        294.8619544795653        296.11411858739217       295.5522581329453        293.15092516804464       293.15042599144607       293.1519434877969        293.15013368843813       293.15061418503444       293.1645096142932        293.28391086307323       293.2920753272148        293.17715987036263       293.1484388328337
0.064                    299.53425927442464       297.30411785579656       296.243361168516         297.85735289957785       297.24438922594777       293.150833520776         293.15033574400775       293.151138656373         293.15000344456786       293.150689230314         293.1408017339877        293.4071261954998        293.41666117977854       293.170912883883         293.16743245213655
0.128                    302.59533148142276       299.4997904077395        298.4530165940278        299.99979996266916       299.58595200551724       293.15042039132913       293.1500498826574        293.1494059299845        293.15006800386493       293.15042699825364       293.1490950938799        293.5579803733179        293.56129072867947       293.19380678953695       293.27306808067715
0.228                    305.6101114024817        301.7097635994154        301.0143005068817        302.02378437836467       301.92110424323124       293.1507265325861        293.15003298288195       293.14998886346905       293.15010813896174       293.1501767258507        293.20010914214504       293.61059803487785       293.60818251530736       293.2714903568686        293.39351225987014
0.328                    307.5371070542339        303.1081563236506        302.688784505435         303.297656090186         303.30816607004397       293.1521597115034        293.15049917230544       293.1524243663791        293.15007868822846       293.15085337754084       293.2083593442198        293.53146268964          293.5321896999136        293.31680834664627       293.3775687118407
0.42800000000000005      309.3299432264767        304.39498034429715       304.1389058791274        304.5067395626558        304.57394694936943       293.15320287972895       293.150875727015         293.1534961488867        293.15021152144686       293.15153506463366       293.209801365361         293.46887331239503       293.4717432031352        293.3391130898019        293.3484015637671
0.528                    310.9647503159737        305.56042318669597       305.400856225205         305.62436191586926       305.7207413144136        293.1536912694929        293.15115811234847       293.15354706471044       293.1504525917678        293.1519931910969        293.2322408885809        293.4369942046736        293.4397381480291        293.3599916176264        293.3376568917743
0.628                    312.4768272577779        306.6341704941263        306.5397292602564        306.6661551766185        306.7806947906144        293.1537934806177        293.1514025466714        293.1531508327399        293.15074763892403       293.15225375870415       293.2813334865058        293.4328444975172        293.4334609232412        293.3893831097741        293.3518685327656
0.728                    313.8611840983392        307.6140527574729        307.56968239680486       307.62491035049646       307.75339330389136       293.1536977216551        293.15170816951337       293.15291317140475       293.15108496999335       293.152397401572         293.37246886722534       293.4649141687858        293.46102395075616       293.4406168051602        293.40476632794827
0.828                    315.13128875534943       308.50979307316186       308.50472057642685       308.5087368260034        308.64700914707976       293.15378401733795       293.15220025321184       293.15338032890406       293.15151990377103       293.1526749975914        293.5114525047992        293.53707056599785       293.5261578548925        293.52014570442253       293.4998358441287
0.9279999999999999       316.3070476958596        309.3361247979034        309.36080724080716       309.33076656823135       309.4743744575758        293.1544362742785        293.1529615055232        293.15480540434754       293.1521526960099        293.1533540381056        293.69701259712684       293.64863933032734       293.6280766324207        293.62885095442533       293.63465502159767
1.028                    317.40420199580285       310.10527643391737       310.15213926802136       310.1011020246916        310.24673350213646       293.15586778407135       293.15399737528946       293.1571035667451        293.1530685026313        293.1545789806937        293.9250311918337        293.7964420112933        293.7634981320113        293.7649068788463        293.80527855252666
1.1280000000000001       318.4341248616361        310.8262101163892        310.8899429104089        310.82682698534916       310.9725475161757        293.1580937393418        293.1552601645777        293.16000077123726       293.1542986254034        293.15634989185105       294.1905932369937        293.97623435534075       293.9282028049392        293.9255992436056        294.0075111734003
1.2280000000000002       319.40600465201805       311.5059579033975        311.5828623403512        311.51372519828817       311.65838041328317       293.1610154404688        293.1567019027895        293.1632139562528        293.155834568035         293.1585887128175        294.4886796883878        294.18359018537365       294.1179318883199        294.1080294091119        294.23706753695376
1.3280000000000003       320.32765551208877       312.1503513313303        312.2376336207842        312.16683926187085       312.3096160720826        293.1645296532448        293.15831867684426       293.16655897187405       293.15767265756756       293.1612218529104        294.81448312857844       294.41437661877325       294.3287853695507        294.3093204154437        294.48979534412234
1.4280000000000004       321.20555612352854       312.7641956751557        312.8596218785819        312.79040770944306       312.93073309538624       293.16860183311144       293.16016906534287       293.1699786196564        293.15985067879785       293.16423185192826       295.1636274499786        294.6649205593415        294.55732729894163       294.52673991895944       294.76194115283374
1.5280000000000005       322.04500182298403       313.3514062139222        313.4531916251125        313.3879116658107        313.5254450755333        293.17328899690057       293.1623698847918        293.1735252892047        293.1624586152976        293.1676703164343        295.5322654529715        294.9320091753054        294.80057253731974       294.75780783211036       295.0502546080371
1.6280000000000006       322.8504003660092        313.91520795147363       314.0219503460671        313.9622613986195        314.0968470616454        293.17872844160746       293.16508081963786       293.17732969612337       293.1656293740994        293.1716467959298        295.91706158885205       295.2128457323812        295.05594655493474       295.0003421278986        295.35194821430616
1.7280000000000006       323.6255017960377        314.4583068232789        314.5689084059576        314.5159489632414        314.6475504800752        293.1851138358661        293.16848743850903       293.1815714532732        293.16952290700635       293.1763100823927        296.3151288027845        295.5050087977608        295.32124287989126       295.252443917256         295.664622279708
1.8280000000000007       324.373520473059         314.982995945661         315.0965917391957        315.0511245445977        315.1797803808162        293.19267191546663       293.17278688206176       293.1864559265767        293.17431223714374       293.181831051803         296.723970299604         295.80641493609295       295.5945791117669        295.51246151483775       295.98621015589674
1.9280000000000008       325.0972107877206        315.49122309855613       315.60712917960007       315.5696406230942        315.69544120199095       293.2016440563117        293.1781769665779        293.19219721229655       293.1801733600858        293.18838954574375       297.1414343501638        296.11527900987477       295.87435304069106       295.77895974491827       296.3149401686338
2.028000000000001        325.7989359874288        315.9846455114357        316.10232294206673       316.07309388240907       316.1961666050899        293.21227257299745       293.1848482465159        293.19900606744267       293.1872780783393        293.1961648582304        297.5656736558969        296.4300740863962        296.1592024874834        296.0506965014614        296.6493001255438
2.128000000000001        326.4807316386283        316.46467834906036       316.58370525529926       316.56286553067196       316.68336152030736       293.2247907155107        293.19297850339956       293.2070817086158        293.1957887857707        293.20532892493384       297.99510571038485       296.7494952020807        296.44797058349275       296.32660107395935       296.98800155807845
2.228000000000001        327.14435785131536       316.9325352699801        317.0525837019953        317.04015477926845       317.15823797308144       293.23941563406095       293.20272921773426       293.21660659220623       293.2058548111537        293.2160415938519        298.4283762471689        297.0724283573441        296.7396760164372        296.60575251779335       297.3299470516802
2.328000000000001        327.7913407924525        317.3892609612189        317.51007795047656       317.50600537250347       317.6218448576582        293.2563438122163        293.21424360218947       293.227743441283         293.2176101442609        293.22844758128787       298.86432759360576       297.39792387903594       297.0334873149635        296.88735951042344       297.6742025491304
2.4280000000000013       328.42300693455917       317.8357575093637        317.95714994729985       317.96132755464106       318.07509247246605       293.27574849357717       293.227645800554         293.2406339181769        293.2311723026595        293.2426747824211        299.3019716369962        297.7251731923254        297.32870064701757       297.17074281210773       298.01997403734185
2.5280000000000014       329.04051219658174       318.272806328422         318.3946289134871        318.4069169448014        318.5187729463223        293.29777862661706       293.2430409244852        293.255398465864         293.24664204516756       293.2588336183682        299.74046641209446       298.05348861552255       297.6247208251498        297.45532021698153       298.3665875185341
2.6280000000000014       329.6448667447356        318.7010865762917        318.8232320904126        318.84347073398436       318.95357745116723       293.32255890697326       293.26051567702154       293.27213694844846       293.26410367543923       293.2770171316965        300.17909570941845       298.3822859840225        297.9210451559703        297.74059347096943       298.71347167632257
2.7280000000000015       330.2369559557377        319.1211905972577        319.2435820086659        319.27160144857453       319.3801107861612        293.3501905817249        293.28013937075275       293.29092980893915       293.28362574745597       293.2973015954381        300.6172514303887        298.71106980056123       298.21724971388016       298.0261368275141        299.06014297764216
2.8280000000000016       330.8175581527517        319.53363686138596       319.656220920583         319.6918486502806        319.7989037472583        293.38075275956345       293.30196519042954       293.31183953413915       293.3052620360745        293.3197474576744        301.05441841433515       299.03942053542903       298.51297765788144       298.3115870923532        299.4061929519463
2.9280000000000017       331.38735968618556       319.93888084018045       320.0616229039793        320.1046889389731        320.2104236264765        293.41430403286404       293.32603158470465       293.3349122744663        293.3290526673913        293.34440049074215       301.49016139729093       299.3669837419698        298.80792928293647       298.5966350196276        299.75127733573197
3.028000000000002        331.94696779463015       320.3373241814672        320.4602040362671        320.51054453156337       320.6150831396669        293.4508842660671        293.3523637030042        293.3601795120814        293.35502532753867       293.3712930487634        301.92411378264575       299.6934607252949        299.10185355118955       298.881017887577         300.09510679016114
3.128000000000002        332.49692157975284       320.72932246710764       320.8523309619359        320.9097906214591        321.0132480341111        293.4905164438241        293.3809748193937        293.38765970503306       293.3831964900558        293.4004453629792        302.35596796720296       300.0186005487531        299.39454088303785       299.16451308514763       300.4374389554607
3.228000000000002        333.0377013768457        321.1151917816315        321.2383281200838        321.3027616932207        321.40524358222723       293.53320850370847       293.4118677045566        293.4173598602646        293.41357262029334       293.43186682462897       302.7854670132514        300.3421931880765        299.68581701766686       299.4469325692463        300.7780716504087
3.328000000000002        333.56973676500394       321.49521428206873       321.61848385235726       321.68975694673696       321.7913601312948        293.5789551025678        293.4450359207811        293.4492770065081        293.4461513292232        293.4655572211924        303.2123974829129        300.66406366561534       299.97553778141776       299.7281180772713        301.1168370528194
3.428000000000002        334.0934134230749        321.8696429285115        321.99305557286584       322.0710449623598        322.1718578512575        293.62773928379437       293.4804650249355        293.48339955114994       293.4809224590639        293.50150790412863       303.6365832717749        300.98406702134605       300.2635846278794        300.00793699459916       301.453596718243
3.5280000000000022       334.60907900335803       322.238705508088         322.3622741501629        322.44686771674765       322.5469708005062        293.6795340261447        293.51813367191875       293.51970851439023       293.5178690904487        293.5397028752377        304.057880301075         301.3020839997105        300.5498608346193        300.2862787880064        301.78823731431436
3.6280000000000023       335.11704816775335       322.6026080625872        322.7263476261101        322.8174440420523        322.91691041101143       293.73430366443966       293.5580146165306        293.55817864037886       293.55696846627575       293.5801197852017        304.47617194862266       301.61801734956595       300.8342882588118        300.5630519273128        302.12066696667216
3.7280000000000024       335.61760690926735       322.96153781180954       323.08546437581543       323.18297260764314       323.28186847846143       293.7920051793897        293.6000756154701        293.5987793892154        293.598192831304         293.62273084241315       304.89136511589146       301.9317886493121        301.1168045687273        300.8381812284018        302.450812128029
3.8280000000000025       336.1110162634158        323.3156656499186        323.4397957957706        323.5436344921764        323.6420197298724        293.85258935860753       293.6442802336351        293.64147581634785       293.6415101892873        293.6675036333974        305.30338684283123       302.2433355818739        301.3973608806133        301.1116055601446        302.77861489497747
3.9280000000000026       336.5975154983055        323.6651482797553        323.78949859315986       323.89959540388867       323.9975240301288        293.916001834083         293.69058856043216       293.6862293474292        293.68688498124095       293.714401858295         305.71218139412025       302.5526095952015        301.6759197411326        301.383275865573         303.10403070809633
4.028000000000002        337.077324858821         324.01013003977914       324.1347167375894        324.2510075985227        324.34852827969115       293.98218400341693       293.7389578426783        293.732998457434         293.73427868956446       293.7633859862444        306.1177077512586        302.8595738933541        301.9524534045058        301.653153454346         303.4270263803067
4.128000000000002        337.55064792913697       324.3507444697124        324.47558312675324       324.5980115371597        324.69516804794245       294.05107384326215       293.7893430410766        293.7817392630352        293.78365037338205       293.81441383629857       306.5199374541298        303.1642017112117        302.2269423610899        301.9212085294055        303.74757840644514
4.2280000000000015       338.0176736683093        324.68711565379436       324.81222100943785       324.9407373201951        325.03756898006566       294.12260662394516       293.841697317309         293.83240603707236       293.83495714074786       293.8674410898813        306.9188527435411        303.46647483261506       302.49937408056786       302.18741891580925       304.0656715138578
4.328000000000001        338.47857816567665       325.01935937456017       325.1447452024798        325.2793059285431        325.3758480097823        294.19671553433267       293.89597245861376       293.8849516535387        293.88815456339637       293.9224217408713        307.3144449629959        303.7663823175059        302.7697419383817        302.4517689641194        304.3812974196285
4.428000000000001        338.9335261559676        325.347584105023         325.47326313261163       325.6138302987442        325.7101144055525        294.27333222578994       293.9521192463897        293.93932797096636       293.9431970395782        293.97930848928445       307.7067131837509        304.0639194085684        303.03804429868273       302.71424860449787       304.6944537650186
4.5280000000000005       339.38267232820874       325.6718918629074        325.7978757293569        325.9444162548841        326.04047067383533       294.3523872836785        294.01008777495326       293.99548616146967       294.000038110265         294.0380530842668        308.0956630222188        304.3590865920898        303.3042837310106        302.97485253092253       305.0051432019216
4.628                    339.8261624575884        325.99237894700826       326.11867819113206       326.2711633170136        326.36701333959473       294.4338106343001        294.06982772610354       294.0533769920521        294.05863073368334       294.09860662177664       308.48130562306955       304.6518887913566        303.5684663412612        303.23357949775084       305.3133726097493
4.728                    340.2641343852298        326.3091365727481        326.435760643336         326.5941654030018        326.6898336213312        294.51753189460635       294.1312886046711        294.11295106413843       294.11892752277083       294.1609198019459        308.8636567850881        304.9423346739826        303.830601200353         303.49043171328617       305.61915242425414
4.827999999999999        340.69671886724086       326.6222514214584        326.7492087043621        326.9135114383987        327.00901801544836       294.6034806713664        294.19441993973396       294.174159016664         294.1808809497685        294.22494315070367       309.2427362100242        305.230436057197         304.0906998564296        303.7454143171013        305.9224960624347
4.927999999999999        341.12404031134855       326.931806115761         327.05910397306684       327.2292858868517        327.3246488026445        294.6915868158633        294.2591714557218        294.236951697468         294.2444435217818        294.29062720983404       309.6185668574052        305.5162073973764        304.34877591850164       303.99853492968094       306.2234194299237
5.027999999999999        341.546217416815         327.23787963160265       327.36552444919454       327.5415692118866        327.6368044872156        294.78178063958717       294.32549321718113       294.3012803071879        294.3095679307721        294.35792269924286       309.9911743906464        305.7996653520395        304.6048447011906        304.24980326450924       306.52194049919893
5.127999999999998        341.963363731095         327.54054765594793       327.66854489654133       327.85043827936755       327.9455601786138        294.87399309582247       294.39333575056236       294.36709651935666       294.37620718109065       294.42678065482175       310.3605867018157        306.0808284041776        304.85892292174503       304.49923079407165       306.81807894860407
5.227999999999998        342.3755881347915        327.83988289782314       327.96823715718364       328.15596670866864       328.2509879232812        294.9681559314886        294.46265014600795       294.43435257994884       294.4443146973342        294.49715254494447       310.72683350416213       306.35971654021796       305.1110284417773        304.74683046240995       307.1118558535937
5.327999999999998        342.78299526482357       328.13595535928494       328.26467042385923       328.45822517948386       328.55315699364957       295.0642018131064        294.53338814177374       294.503001389219         294.51384441500085       294.568990368293         311.08994598302286       306.63635097413413       305.36118004726296       304.99261643786934       307.4032934228241
5.427999999999997        343.1856858843289        328.4288325719389        328.55791147654463       328.7572817002529        328.8521341402251        295.16206443030967       294.6055021936015        294.5729965683108        294.58475085614106       294.64224673541304       311.4499564970142        306.91075391126554       305.6093972612825        305.2366039005466        307.6924147727591
5.527999999999997        343.5837572066183        328.7185798038206        328.84802488837727       329.05320184336307       329.1479838118481        295.26167857991425       294.6789455310778        294.64429251279694       294.6569891919495        294.7168749361141        311.80689832253825       307.1829483463105        305.85570018477995       305.4788088596958        307.97924373535284
5.627999999999997        343.9773031794752        329.0052602407612        329.13507320531625       329.34604895157975       329.4407683485026        295.36298023319574       294.75367220276433       294.71684443502346       294.7305152940106        294.7928289945867        312.1608054355912        307.4529578907224        306.1001093612978        305.71924799699525       308.2638046941373
5.727999999999996        344.36641473520905       329.28893514577214       329.41911710329055       329.6358843195544        329.7305481504389        295.4659065886931        294.8296371116572        294.7906083968868        294.80528577570857       294.87006371387747       312.5117123256951        307.7208066254113        306.34264566222646       305.9579385321368        308.5461224447018
5.827999999999996        344.7511800111164        329.5696639994768        329.70021552603555       329.92276735373247       330.017381826848         295.5703961125707        294.90679604233765       294.8655413344474        294.8812580251247        294.9485347111674        312.8596538374843        307.98651897521927       306.58333018960985       306.19489810768323       308.82622207611615
5.9279999999999955       345.1316845443546        329.84750462418833       329.9784258063515        330.206755713532         330.30132632687327       295.6763885683085        294.9851056809985        294.94160107559924       294.95839023058693       295.02819844511714       313.20466503609896       308.2501196021287        306.8221841939725        306.4301446905539        309.10412887033567
6.027999999999995        345.5080114446728        330.12251329386436       330.2538037731191        330.4879054362767        330.5824370553594        295.7838250372637        295.06452362937756       295.0187463518424        295.0366413998855        295.10901223638484       313.5467810930658        308.5116333145872        307.0592290049955        306.6636964878574        309.37986821704106
6.127999999999995        345.8802415479697        330.3947448318543        330.52640384606957       330.7662710480266        330.8607679754015        295.8926479314471        295.1450084134933        295.096936805065         295.11597137404374       295.19093428228115       313.8860371898054        308.771084990695         307.29448597318685       306.8955718751046        309.6534655417248
6.227999999999994        346.2484535532323        330.66425269808514       330.7962791200158        331.0419056621635        331.1363716994765        296.00280099967847       295.22651948796016       295.1761329901115        295.1963408364198        295.27392366640356       314.22246843630074       309.02849951331405       307.5279764209535        307.12578933510025       309.9249462451452
6.327999999999994        346.612724145058         330.93108906710046       331.0634814400058        331.31486106733473       331.40929957068425       296.11422932813224       295.3090172365541        295.2562963738096        295.2777113178131        295.3579403639826        314.55610980279954       309.28390171542657       307.7597216017109        307.35436740604365       310.19433565252865
6.427999999999994        346.97312810365844       331.1953048981693        331.32806146864675       331.58518780614423       331.6796017354231        296.22687933614804       295.3924629696132        295.3373893310266        295.3600451981646        295.44294524357565       314.8869960627209        309.5373163343031        307.9897426658671        307.5813246375713        310.46165897113536
6.527999999999993        347.3297384039811        331.4569499985121        331.5900687466711        331.85293524578935       331.94732720863436       296.3406987680642        295.4768189187731        295.4193751382537        295.4433057053594        295.52890006566184       315.21516174518354       309.78876797323954       308.2180606326775        307.80667955364385       310.72694125498975
6.627999999999993        347.68262630535935       331.71607308054536       331.8495517476597        332.118151641687         332.21252393259715       296.4556366817253        295.56204822947444       295.5022179651371        295.5274569115777        295.61576747861767       315.5406410957974        310.03828106979574       308.44469636711744       308.030450621333         310.9902073757521