% Model:              3D_3lay_aniso_rd2.mph
% Version:            COMSOL 5.2.1.152
% Date:               Aug 7 2018, 07:44
% Table:              Probe Table 1 - 
% Time (s)               Temperature (K), Point: (0, 0, 0)Temperature (K), Point: (60, 0, 0)Temperature (K), Point: (0, 60, 0)Temperature (K), Point: (-60, 0, 0)Temperature (K), Point: (0, -60, 0)Temperature (K), Point: (0, 0, 30.5)Temperature (K), Point: (60, 0, 30.5)Temperature (K), Point: (0, 60, 30.5)Temperature (K), Point: (-60, 0, 30.5)Temperature (K), Point: (0, -60, 30.5)Temperature (K), Point: (0, 0, 60)Temperature (K), Point: (60, 0, 60)Temperature (K), Point: (0, 60, 60)Temperature (K), Point: (-60, 0, 60)Temperature (K), Point: (0, -60, 60)
0                        293.15033809497623       293.15041275383265       293.15019188795765       293.15024575051257       293.1502169861673        293.15000022279963       293.1500001949716        293.14999990024114       293.1500006607411        293.150000055962         293.15000000109217       293.1500000001994        293.15000000027794       293.15000000013214       293.15000000020166
0.001                    293.32592740704274       293.36000799411806       293.25045742382054       293.27777070239785       293.2630484957877        293.15003524532307       293.1500828744073        293.1499810256171        293.1503279860491        293.1500203880476        293.15000039532686       293.15000006792917       293.15000011776266       293.15000005761067       293.15000007935953
0.002                    293.49838180303846       293.56095025432563       293.34958094418323       293.40290572580017       293.3740426799104        293.1500054294654        293.15014530612586       293.1499924748124        293.150628143117         293.150032844251         293.15000063654475       293.1500001031907        293.1500002060322        293.15000010286764       293.1500001355367
0.004                    293.8353200699417        293.9421086645733        293.54482284046253       293.64711484490516       293.59141463575276       293.1498504991382        293.1502263847425        293.15007162468703       293.15115148212607       293.1500433613896        293.150000851214         293.1500001163208        293.15000031706734       293.15000016596474       293.15000020484894
0.008                    294.47621288784677       294.62411101241827       293.92257018044165       294.11049787920587       294.0074536650116        293.14946072049673       293.15026157989814       293.15034254486636       293.1518465487851        293.15002571690695       293.15000068882756       293.15000003303294       293.15000032109407       293.150000196894         293.1500002152315
0.016                    295.64537105074237       295.7424620812598        294.63237288435613       294.952172955446         294.7765010974331        293.1490593260671        293.1501678646031        293.1508070248227        293.15213673568394       293.14991026161226       293.14999974034845       293.1499998599916        293.14999994790895       293.15000005197055       293.14999998166223
0.032                    297.6596069349003        297.4093888321788        295.90671853962397       296.3929253103889        296.13079600152724       293.14937109626084       293.15013404393          293.1506795596665        293.1510149154817        293.14973108349676       293.1499990091632        293.1499998927323        293.14999956962197       293.1499997866648        293.1499996898217
0.064                    300.84335344474357       299.61503944623894       298.0308290703215        298.64763645303174       298.33466973735966       293.15054365886186       293.15002861477694       293.14975739676186       293.1490380270631        293.1503533360967        293.14999968818665       293.1500000334858        293.1499998791056        293.1499998589114        293.149999916403
0.128                    305.3710835976103        302.3657094125311        301.2257547254481        301.80976030740334       301.5577439334311        293.1525560093601        293.1500332425423        293.1502863930135        293.1498664312425        293.15284532451926       293.15000047686954       293.15000005495057       293.1500002144212        293.1500001096894        293.15000018058623
0.228                    309.19770984569163       304.65382860951155       304.09564988609975       304.43656244459464       304.33207651733363       293.15529079740423       293.1516260610284        293.15472775456567       293.1536819015341        293.15654661975736       293.1500002002637        293.15000005126035       293.15000011274094       293.15000006293354       293.1500001562707
0.328                    312.2443860190542        306.6347820365079        306.3528125949851        306.5401864947658        306.51142475971716       293.16141821867484       293.1542846804739        293.16083855613374       293.1579015120292        293.1626818967358        293.1500004970897        293.1500001746988        293.15000032787935       293.1500001706033        293.15000043806197
0.42800000000000005      314.7946047166481        308.3548336276035        308.22162617691873       308.3113440027491        308.32207253825123       293.17159952400084       293.1590568719084        293.1691090400945        293.16441736137546       293.1716628850456        293.1500012359967        293.15000046982453       293.1500008405985        293.1500004721567        293.1500010403356
0.528                    317.0292992946811        309.8868845940868        309.8475814646135        309.86968183844914       309.90423469740443       293.18553926361574       293.1668445829293        293.179583051516         293.1736988709366        293.1829901627476        293.15000261638704       293.15000107318775       293.150001828269         293.1500010927193        293.1500021504088
0.628                    318.997592574119         311.25294617541135       311.27087546664507       311.2473644845321        311.29605707153695       293.20449141489564       293.1790031536888        293.1932335127989        293.18678916036856       293.1974095294916        293.1500051531829        293.15000225666887       293.15000367419964       293.15000231400177       293.1500041645641
0.728                    320.7931043777627        312.5083036921615        312.5639479108241        312.50741148405973       312.5655669744407        293.2279933337401        293.1951294102153        293.2098777272854        293.20333182853193       293.2146762597779        293.15000886253176       293.15000404058947       293.1500063903819        293.1500041570388        293.150007090071
0.828                    322.4370064289665        313.66269804378294       313.7446965268382        313.6635589367545        313.7292410760711        293.258417049816         293.21701927510014       293.2312649096017        293.22503030252585       293.2364440883227        293.1500145597586        293.1500068733254        293.1500105807225        293.1500070846637        293.1500115481341
0.9279999999999999       323.94770399355565       314.72660773645566       314.82821348172104       314.7280049282777        314.8006560783116        293.29866709322897       293.2465726825724        293.25954317967734       293.25389024726263       293.26485663964473       293.15002334516726       293.1500113871692        293.15001705671773       293.15001174580846       293.1500183648206
1.028                    325.34544677086893       315.7130094961411        315.8303561745276        315.71444689830474       315.7941516888713        293.3516870859024        293.2855675368009        293.29691110679886       293.2919153068038        293.30216556508685       293.15003668323476       293.15001846314544       293.1500268921813        293.1500190398794        293.1500286189978
1.1280000000000001       326.6482493038214        316.6338383624542        316.76486553930675       316.6351779638792        316.7223064189072        293.42007942386795       293.33556996990467       293.3453280696364        293.3408844413467        293.35039388366135       293.1500565574357        293.15002934187254       293.15004153491935       293.15003022788846       293.1500437506442
1.2280000000000002       327.8703867780654        317.4987100018351        317.64240182995087       317.49999007765086       317.59502162796286       293.5058032014031        293.3978004498678        293.4062834665117        293.4021518555081        293.4110818545853        293.1500856457516        293.15004575206063       293.1500629336122        293.15004706045545       293.1500656894846
1.3280000000000003       329.0228369978408        318.31512573985725       318.47101074229454       318.3164428659684        318.41987252471057       293.61006418142904       293.47304822095913       293.4807114036112        293.47656410004316       293.48519804974455       293.1501275338352        293.15007006399003       293.1500936872872        293.1500719301802        293.15009701455347
1.4280000000000004       330.1141595003893        319.0889968200363        319.2568732662374        319.0904490113753        319.20274038754667       293.73337739229805       293.56167595315503       293.5690357598386        293.5644952381191        293.5731885725287        293.1501869695776        293.150105472903         293.15013721571654       293.15010805177593       293.15014114134465
1.5280000000000005       331.15121177887966       319.8250844398389        320.00488925221566       319.8267561980179        319.9483239879619        293.87571076823383       293.6636880933703        293.67127665418263       293.6659411171722        293.6750879993437        293.1502701434588        293.15015621051384       293.1501979407822        293.1501596655151        293.15020251777133
1.6280000000000006       332.13962937497655       320.52731071034475       320.719054615983         320.52927190963476       320.6604794589864        294.0366336952534        293.7788182414283        293.78716072622456       293.7806197018222        293.7906324928669        293.1503849738834        293.1502277770906        293.150281472057         293.15023225657944       293.1502868109242
1.7280000000000006       333.08413624696516       321.19896892035763       321.4026983625858        321.2012747551919        321.34243692856137       294.21543828553257       293.9066072127209        293.9162106702489        293.9080540733917        293.9193509757886        293.15054138729886       293.15032718439164       293.15039480081595       293.15033278595155       293.15040108452445
1.8280000000000007       333.98875155582675       321.84286479601025       322.058638388844         321.8455561267873        321.996943441911         294.4112309992209        294.04646401609216       294.05781219590995       294.0476356545293        294.0606331346308        293.1507516008801        293.15046320249724       293.15054651657744       293.1504699339856        293.15055398886176
1.9280000000000008       334.85693518583577       322.4614151875797        322.68929063843416       322.46452020909817       322.6263634150542        294.6230014649435        294.1977121822514        294.2112638272266        294.19867194917947       294.21377991462913       293.15103042570456       293.1506466076319        293.15074705936604       293.15065435877904       293.1507559909835
2.028000000000001        335.6916954927091        323.05672153704126       323.2967493994141        323.0602581237835        323.23275306166204       294.849674457467         294.35962523991833       294.3758143124418        294.3604227157788        294.3780413891062        293.15139559715107       293.1508904262714        293.15100900447123       293.15089896243484       293.15101965259197
2.128000000000001        336.4956715811897        323.63062677878884       323.88284792728285       323.63460465208817       323.8179170493628        295.0901487374817        294.5314537459396        294.5506905709288        294.53212708649687       294.5526450253946        293.15186810819404       293.15121016012614       293.1513473505986        293.1512191414055        293.15135992670935
2.228000000000001        337.2711969431633        324.18475974677267       324.44920475405075       324.1891822369815        324.3834520822649        295.34332540692503       294.71244539367          294.73511815775856       294.71302347070775       294.7368163909542        293.15247248961975       293.15162396299127       293.1517797618954        293.1516329825597        293.15179441553533
2.328000000000001        338.0203490169297        324.72056984571896       324.99725937727965       324.7254353460113        324.93078069515013       295.60812806252784       294.90185954204634       294.92833587920245       294.9023638134553        294.9297939532824        293.1532369712444        293.15215273462024       293.15232671243655       293.152161365037         293.15234352912756
2.4280000000000013       338.7449881615061        325.23935435831544       325.528300096099         325.244657539268         325.4611777715322        295.8835166910316        295.09897741784926       295.1296059381838        295.09942352762755       295.13083935714053       293.1541934768748        293.1528201047599        293.15301149962744       293.1528279416879        293.15303050693103
2.5280000000000014       339.44678873044364       325.74228026860084       326.04348604809024       325.74801306452724       325.97579165926857       296.1684968490433        295.30310903084745       295.33822070964277       295.30350814313886       295.33924428861684       293.1553774408795        293.15365229880325       293.1538601201834        293.15365899578046       293.1538812963133
2.6280000000000014       340.1272642071194        326.23040194443485       326.54386491907167       326.2365543303809        326.47566122676284       296.46212531406115       295.5135976015285        295.55350699430755       295.51395748266737       295.5543347883597        293.15682746676936       293.1546778959443        293.15490102579116       293.1546831882988        293.15492430783047
2.7280000000000015       340.7877877974403        326.70467562732847       327.03038736727893       326.7112362249392        326.9617298161068        296.76351312150285       295.7298221174054        295.77482840360847       295.7301479957876        295.7754736774826        293.15858486635244       293.15592750351306       293.1561647880167        293.1559312222487        293.156190078918
2.8280000000000016       341.4296094882007        327.16597142903714       327.5039189119146        327.17292797859625       327.4348567889155        297.0718266942907        295.95119850227957       296.0015863776516        295.95149374289366       296.00206160382834       293.1606931215535        293.1574333752966        293.1576837040653        293.15743545271636       293.1577108784617
2.9280000000000017       342.05387032337893       327.61508336541397       327.9652498414593        327.622423091332         327.8958271837143        297.3862876047696        296.1771797769933        296.23322021856166       296.177446405006         296.2335370940415        293.163197306166         293.1592289996544        293.15949137124016       293.15922946850856       293.15952028015505
3.028000000000002        342.66161447170225       328.05273783154684       328.4151035607042        328.06044772182463       328.3453598776036        297.706171376152         296.40725550108755       296.46920642741776       296.4074946035301        296.46937590217874       293.166143497657         293.16134867877116       293.16162225257534       293.1613476665247        293.16165272705825
3.128000000000002        343.253799524845         328.4796008267623        328.8541436946637        328.48766784381655       328.78411455157084       298.03080562870366       296.640950713672         296.70905756100467       296.641162743635         296.709089873262         293.16957820252276       293.16382711578854       293.1641112511493        293.1638248354452        293.1641431049228
3.228000000000002        343.8313053634371        328.8962841671407        329.2829801918513        328.90469540476647       329.21269768881774       298.3595677985939        296.87782453776697       296.95232077011383       296.8780095416546        296.9522254851217        293.1735478129922        293.16669902251857       293.1669933063124        293.1666957612866        293.1670263376212
3.328000000000002        344.3949418511466        329.3033508700964        329.7021746129612        329.31209366844945       329.63166778302343       298.69188259845384       297.11746857135745       297.19857613964285       297.117626356161         297.1983621898293        293.17809810779835       293.1699987569239        293.1703030212936        293.16999486380405       293.17033701419484
3.428000000000002        344.94545555982756       329.70131985532527       330.1122447491325        329.7103818832311        330.04153989421025       299.02721934364826       297.3595051567223        297.44743491902125       297.3596354109677        297.44711064395995       293.1832738052088        293.1737599964371        293.1740743283175        293.1737558695787        293.174109053633
3.5280000000000022       345.48353568577215       330.0906700758416        330.5136686827269        330.1000393877548        330.44278966042503       299.3650892340314        297.60358559513674       297.69853770738297       297.603687974359         297.6981108926321        293.1891181726684        293.17801545052754       293.178340194554         293.17801152496384       293.1783754106492
3.6280000000000023       346.0098192844313        330.4718441695456        330.90688837993207       330.48150924296766       330.83585685114343       299.70504265517667       297.849388355421         297.95155263973584       297.8494625407292        297.9510305539604        293.19567269437          293.1827966137675        293.1831323699908        293.18279334995117       293.1831678234979
3.7280000000000024       346.5248959258109        330.84525170390225       331.29231288647577       330.85520146183586       331.22114853122633       300.0466665437644        298.09661731076505       298.20617360674333       298.09666304721907       298.20556303680695       293.20297679580216       293.1881335590189        293.188481176661         293.18813143242346       293.18851660322264
3.8280000000000025       347.0293118532901        331.2112720724589        331.67032118386146       331.2214958944928        331.5990418910604        300.3895818473708        298.3450000276889        298.46211853052114       298.3450171477123        298.4614258144044        293.21106762270847       293.1940547691747        293.1944153374698        293.19405426110694       293.1944504625523
3.9280000000000026       347.5235737134665        331.5702570911244        332.04126475281475       331.58074481595503       331.969886788267         300.73344109816134       298.59428612306607       298.7191277112284        298.59427455892467       298.7183587687454        293.2199798708037        293.20058700508173       293.2009618420616        293.2005885947582        293.20099638186196
4.028000000000002        348.00815191278406       331.9225333336662        332.4054698822744        331.93327525524205       332.3340080383434        301.07792611205264       298.8442456992157        298.97696225358203       298.8442054876464        298.97612261494083       293.2297456619136        293.20775520675056       293.2081458466704        293.2077593646274        293.20817950912095
4.128000000000002        348.4834836473435        332.26840423918827       332.76323975570483       332.27939109818226       332.6917074853001        301.42274581911903       299.0946678626978        299.23540257827176       299.0945991440322        299.23449741057243       293.24039446185657       293.21558242467427       293.2159906046263        293.2155896069695        293.21602309048865
4.2280000000000015       348.9499756448487        332.6081520190449        333.1148563413188        332.6193749909748        333.04326587834265       301.76763422683763       299.3453593292557        299.49424702024066       299.34526234280804       299.49328115202974       293.2519530352723        293.22408977796294       293.22451742410414       293.22410042228563       293.22454842813465
4.328000000000001        349.4080066516656        332.9420393863801        333.4605821086534        332.9534900673961        333.3889445766405        302.1123485147953        299.59614311505584       299.753310513634         299.5960181920931        299.7522884576458        293.26444543268445       293.23329643602756       293.23374564974256       293.23331095800523       293.23377486190924
4.428000000000001        349.8579296931405        333.2703111280376        333.8006615906106        333.28198151916297       333.7289871009833        302.45666725742814       299.8468573127418        300.0124233616985        299.8467048680129        300.01134933591953       293.2778930052737        293.24321962065545       293.2436926648937        293.2432384114503        293.24371977162025
4.5280000000000005       350.30007413137787       333.5931955357868        334.13532280736456       333.6050780262111        334.0636205484931        302.80038876997196       300.09735394970534       300.2714300888755        300.09717447223835       300.27030803606294       293.29231444312666       293.2538746255006        293.2543739114586        293.25389805009826       293.254398596874
4.628                    350.7347475414437        333.91090571150755       334.4647785663224        333.92299306138955       334.3930568843909        303.1433295719287        300.34749792522615       300.53018837164814       300.34729196890373       300.5290219774279        293.3077258330496        293.26527485022746       293.26580292449313       293.26530324638844       293.2658248716649
4.728                    351.16223742426047       334.2236407590717        334.7892276504945        334.23592608219684       334.71749412303046       303.4853229618376        300.5971660226784        300.78856804428517       300.5969341969451        300.78736075394767       293.32414073239795       293.27743184678116       293.2779913790189        293.2774655245517        293.2780102711517
4.827999999999999        351.58281277222267       334.53158687407426       335.10885590610104       334.54406362062315       335.0371174089084        303.8262176969033        300.8462459927364        301.04645017539804       300.8459889536813        301.04520520950155       293.3415702557324        293.2903553755065        293.2909491467268        293.2903946171931        293.29096466831254
4.927999999999999        351.99672550165417       334.83491834122776       335.42383723896137       334.8475802808459        335.352100007103         304.16587677097965       301.09463570341563       301.3037262111488        301.0943541453851        301.3024465800282        293.3600231714689        293.30405346908196       293.3046843605183        293.30409852960435       293.30469619842336
5.027999999999999        352.4042117646246        335.1337984481058        335.7343345281245        335.1466396534093        335.6626042115223        304.5041762845032        301.34224235278083       301.5602971809607        301.34193700061394       301.5589856982334        293.37950600603506       293.3185325024667        293.3192034850655        293.3185836100122        293.31921132954596
5.127999999999998        352.805493151258         335.4283803229496        336.0405004642698        335.44139515356494       335.968782178425         304.84100440014925       301.5889817402357        301.81607296167164       301.5886533421697        301.81473225682254       293.4000231533636        293.3337972672875        293.33451139180283       293.33385462420205       293.3345149374424
5.227999999999998        353.2007777924804        335.71880770342676       336.3424783196059        335.7319907906274        336.27077669189026       305.1762603782333        301.83477759244005       302.0709715962096        301.83442691369913       302.0696041263291        293.42157698785377       293.34985104929643       293.35061143697504       293.3499148331528        293.35061038353905
5.327999999999998        353.5902613721168        336.00521564250624       336.64040265530804       336.0185618744868        336.5687218672255        305.5098536861634        302.0795609400634        302.32491866303496       302.0791887571225        302.3235267237773        293.44416797920167       293.3666957077241        293.36750554155725       293.36676607251894       293.36749959476333
5.427999999999997        353.9741280563514        336.2877311569907        336.93439997192354       336.30123566480125       336.86274379770595       305.8417031765629        302.32326954177285       302.57784669278226       302.32287663727067       302.5764324286038        293.4677948077465        293.38433175552143       293.38519427204227       293.3844088329611        293.38518314424516
5.527999999999997        354.35255134777043       336.5664738236959        337.22458930764856       336.5801319678442        337.1529611495102        306.17173632899267       302.5658473520508        302.8296946287311        302.56543451031825       302.82826004246346       293.4924544792013        293.40275843964787       293.4036769212452        293.40284234048573       293.4036603320377
5.627999999999997        354.7256948705102        336.8415563277862        337.5110827889123        336.8553636855045        337.4394857092591        306.49988855052936       302.80724402964034       303.08040732793455       302.8068120328016        303.07895428974234       293.5181424378284        293.4219738206934        293.42295158841694       293.4220646360931        293.4229292651493
5.727999999999996        355.0937130924149        337.11308496734307       337.7939861372846        337.12703732051193       337.7224228881469        306.8261025307628        303.04741448361784       303.3299351000363        303.04696410822135       303.32846535580245       293.54485267729757       293.4419748512535        293.44301525808254       293.442072654153         293.442986936304
5.827999999999996        355.4567519895566        337.38116011786747       338.07339913636343       337.395253441578         338.0018721862925        307.150327647084         303.2863184542891        303.578233280996         303.2858504684227        303.5767484601776        293.572577848611         293.462757452581         293.46386387713096       293.4628622990397        293.4638293009562
5.9279999999999955       355.8149496579823        337.6458766600756        338.3494160619575        337.6601071118125        338.2779276206101        307.4725194164211        303.52392012629895       303.82526183913745       303.52343528714397       303.82376346212624       293.60130936461275       293.4843165891329        293.4854924297745        293.48442851964757       293.48545135218126
6.027999999999995        356.1684368771061        337.9073243740448        338.6221260785927        337.92168828346695       338.5506781192031        307.7926389898624        303.7601877715228        304.07098501110653       303.7596868233036        304.06947449612926       293.63103750071497       293.5066463407165        293.5078950100849        293.5067653814944        293.50784719314527
6.127999999999995        356.51733762877654       338.1655883024923        338.8916136051009        338.1800821617872        338.82020788502365       308.11065268686133       303.99509341948504       304.3153709655001        303.99457709177364       304.31384963508935       293.66175149156794       293.5297399720085        293.53106489187803       293.52986613618907       293.5310101069305
6.227999999999994        356.8617695756869        338.42074908572783       339.1579586518085        338.4353695405142        339.08659673130063       308.42653156596737       304.2286125532113        304.5583914920883        304.2280815595475        304.5568605791514        293.69343962348734       293.5535899992807        293.5549945957867        293.5537232881017        293.55493262355276
6.327999999999994        357.20184450247837       338.672883270594         339.4212371316303        338.68762711134764       339.3499203910232        308.7402510292531        304.4607238285762        304.8000217147008        304.46017886536794       304.7984823682127        293.72608932252          293.5781882542232        293.57967595340875       293.5783286581243        293.57960658405875
6.427999999999994        357.5376687225935        338.9220635955154        339.6815211471721        338.9369277494911        339.6102508025738        309.05179045782626       304.69140881535077       305.0402398259904        304.69085056102085       305.03869311633497       293.75968723809143       293.60352594479303       293.6051001684647        293.6036734444581        293.60502320163846
6.527999999999993        357.86934345367376       339.1683592535883        339.93887925576996       339.1833407772149        339.8676563734245        309.361132876009         304.9206517582898        305.2790268424215        304.9200808726397        305.27747376640303       293.79421932222624       293.62959371306204       293.6312578749348        293.62974828039586       293.6311731197214
6.627999999999993        358.1969651640584        339.41183613548554       340.1933767142347        339.4269322072068        340.12220222365323       309.668264641957         305.1484393567231        305.5163663779505        305.1478564804856        305.51480786349623       293.82967090437387       293.6563816900606        293.6581391921786        293.65654328910233       293.6580464670599