% Model:              3D_7lay_aniso_h.mph
% Version:            COMSOL 5.2.1.152
% Date:               Nov 22 2018, 15:33
% Dimension:          1
% Nodes:              100
% Expressions:        11
% Description:        Temperature
% cln1x                   T (K) @ t=0              T (K) @ t=3              T (K) @ t=6              T (K) @ t=9              T (K) @ t=12             T (K) @ t=15             T (K) @ t=18             T (K) @ t=21             T (K) @ t=24             T (K) @ t=27             T (K) @ t=30
0.4                       293.1503381780273        334.0586027845897        347.98262047166486       357.11478950308236       363.67305999754115       368.6091675114379        372.4548547473379        375.53311655424875       378.0494811062677        380.13999127097554       381.8981988116262
1.2                       293.15020992372536       332.72768054042336       346.7516361267119        355.951949431688         362.55979571241494       367.5335253151099        371.40870515308086       374.51068479358355       377.0465051638309        379.1532193751175        380.92507986429996
2                         293.1501142398865        331.4355091910727        345.54868255463          354.8123439899951        361.4669166450844        366.4764220600411        370.37983447290907       373.5046333963705        376.0592428543065        378.18164884034826       379.96675699077844
2.8000000000000003        293.1500534821444        330.1833280806722        344.37481949319357       353.69696174253767       360.3953687404804        365.43877538135496       369.3691405687819        372.51584593140865       375.08856713899775       377.22614459100726       379.0240889253523
3.5999999999999996        293.1500110903573        328.9673688123798        343.226545093047         352.6024151714222        359.3418430941772        364.4173347532748        368.3734174523962        371.5411509183002        374.13133357592346       376.28358356062597       378.09396962595883
4.4                       293.1499870645253        327.78763138619536       342.10385935419004       351.5287042766487        358.3063397061746        363.4121001758005        367.39266512375184       370.5805483570453        373.1875421650836        375.3539657492044        377.1763990925982
5.2                       293.14997341594596       326.6447525272726        341.0072847325416        350.4762855636816        357.28927289811736       362.4234573975833        366.42724913320114       369.6343890192464        372.2575325589859        374.43762225426104       376.27170172178336
6                         293.14995509090164       325.5402057534434        339.9381382216403        349.4463571911324        356.2917611737465        361.4524697615232        365.4781931912665        368.7036672146859        371.34227667683234       373.53550757912245       375.3808182393954
6.800000000000001         293.14994973344193       324.4727354190097        338.89544891900357       348.43809691088387       355.31307536254          360.4984704783659        364.54487425436133       367.78779168624555       370.44120702790906       372.64707241502276       374.5032135035753
7.6                       293.149957343567         323.4423415239719        337.87921682463207       347.45150472293625       354.3532154644981        359.5614595481116        363.62729232248626       366.8867624339256        369.5543236122164        371.77231676196243       373.6388875143231
8.4                       293.14997792127656       322.44902406832955       336.8894419385252        346.4865806272893        353.41218147962053       358.64143697075997       362.7254473956408        366.00057945772585       368.68162642975415       370.91124061994094       372.78784027163863
9.200000000000001         293.1500114665709        321.49278305208304       335.9261242606833        345.5433246239433        352.48997340790754       357.7384027463114        361.8393394738252        365.12924275764647       367.82311548052246       370.06384398895864       371.9500717755222
10                        293.15005797944985       320.5736184752321        334.9892637911062        344.62173671289804       351.58659124935883       356.85235687476563       360.9689685570392        364.27275233368727       366.9787907645212        369.23012686901546       371.1255820259735
10.8                      293.1500192705975        318.8065588232902        333.1714811257621        342.8275027973145        349.82468768541753       355.122538772371         359.26877196210086       362.5991059727846        365.3285883997588        367.600461828243         369.5138352854425
11.6                      293.14999333980546       317.09082577808505       331.3903094935377        341.0622101805371        348.08701777985823       353.4138596260804        357.58757899209246       360.94292549713316       363.6947010831298        365.9862213477688        367.9168047415286
12.4                      293.14998018707405       315.42641933961676       329.6457488944332        339.32585886256595       346.3735815326811        351.726319435894         355.92538964701436       359.3042109067332        362.0771288146344        364.3874054275929        366.33449039423186
13.200000000000001        293.14997981240305       313.81333950788525       327.93779932844853       337.61844884340104       344.6843789438862        350.05991820181197       354.2822039268665        357.68296220158476       360.4758715942725        362.8040140677152        364.76689224355255
14                        293.1499851153501        312.2498376747334        326.2632415365492        335.9363204474257        343.01556325796514       348.41072468010725       352.65405510066927       356.0752014471203        358.88695212548805       361.23207604151173       363.2100472676124
14.8                      293.150004399334         310.74050157458635       324.62726687680623       334.2847474009231        341.37240035355524       346.7839712245891        351.04613564319806       354.4860822311443        357.31548886950054       359.6766792227761        361.66901720528347
15.600000000000001        293.1500101919342        309.8379946636811        323.6351715509217        333.27832673411757       340.3686683958986        345.7889185312557        350.06183269154764       353.5128349114186        356.3527812874798        358.72364366613647       360.72467386820256
16.4                      293.15000846536594       309.15242610313356       322.869565760195         332.4966063363048        339.58628251053966       345.01166157196093       349.29194841871487       352.7509268119931        355.5986638444604        357.9767721546476        359.9843667779622
17.2                      293.15000692887617       308.49451145886064       322.12630727879804       331.7333723820847        338.81985864699595       344.248658013978         348.53511210124736       352.0011813120403        354.8560347685323        357.24085948756044       359.25459209011285
18                        293.15000558246425       307.86425073086207       321.40539610673085       330.9886248714571        338.0693968052674        343.4999078573068        347.791323739145         351.26359841155994       354.1248940596955        356.5159056648746        358.53534980465463
18.799999999999997        293.1500044261307        307.261643919138         320.7068322439936        330.2623638044221        337.3348969853543        342.76541110194745       347.060583332408         350.53817811055245       353.4052417179501        355.8019106865905        357.82663992158774
19.6                      293.15000306770185       306.68760247107144       320.03176826619324       329.55579483216445       336.6175806194676        342.04639189249446       346.3441123626279        349.82613713977685       352.69828916717654       355.10008081863907       357.1296639951777
20.4                      293.15000173135394       306.1414999898761        319.37939773108184       328.8680471164492        335.91654777431114       341.34193677307564       345.640991448618         349.12655397717447       352.00311460608174       354.4094948563651        356.44350178728666
21.200000000000003        293.15000060782677       305.62287288311484       318.74913164104663       328.19849928713205       335.231165538644         340.65140920774223       344.95058391543165       348.4387933232021        351.31908467825934       353.72952149912726       355.76752395633633
22                        293.1499996971201        305.1317211507876        318.14096999608734       327.54715134421326       334.56143391246627       339.9748091964943        344.272889763069         347.76285517786005       350.6461993837095        353.06016074692576       355.10173050232675
22.799999999999997        293.1499989992341        304.6680447928944        317.55491279620423       326.9140032876928        333.9073528957781        339.31213673933195       343.6079089915298        347.09873954114823       349.9844587224322        352.40141259976053       354.44612142525784
23.599999999999998        293.1499985141687        304.23184380943525       316.9909600413973        326.2990551175707        333.2689224885792        338.66339183625496       342.95564160081443       346.4464464130666        349.33386269442724       351.75327705763135       353.80069672512974
24.4                      293.1499982419239        303.82311820041014       316.4491117316663        325.7023068338468        332.6461426908698        338.02857448726354       342.3160875909227        345.80597579361523       348.6944112996949        351.1157541205384        353.16545640194227
25.2                      293.1499981824998        303.4418679658192        315.9293678670115        325.1237584365214        332.03901350264994       337.4076846923576        341.68924696185456       345.177327682794         348.06610453823504       350.4888437884818        352.5404004556956
26                        293.1499983358964        303.08809310566215       315.43172844743265       324.56340992559427       331.4475349239195        336.8007224515371        341.0751197136101        344.56050208060304       347.4489424100476        349.8725460614614        351.9255288863896
26.8                      293.1499987021135        302.7617936199392        314.9561934729299        324.02126130106546       330.8717069546785        336.2076877648022        340.4737058461893        343.95549898704235       346.84292491513287       349.2668609394772        351.3208416940244
27.599999999999998        293.14999928115134       302.4629695086504        314.5027629435033        323.497312562935         330.3115295949268        335.6285806321527        339.8850053595921        343.3623184021117        346.24805205349054       348.6717884225293        350.7263388785998
28.4                      293.15000007300966       302.19162077179544       314.0714368591526        322.99156371120273       329.7670028446646        335.0634010535886        339.3090182538185        342.7809603258114        345.6643238251205        348.0873285106174        350.14202044011597
29.2                      293.15000107768867       301.9477474093747        313.66221521987814       322.504014745869         329.2381267038919        334.5121490291101        338.7457445288686        342.21142475814133       345.09174023002316       347.5134812037418        349.5678863785729
30                        293.1500000000374        297.6882667340715        306.092705685773         313.3078471170082        319.16813673856217       323.9596533320884        327.92632791017587       331.2460942148745        334.04886997707604       336.43175843407516       338.4691256410259
30.8                      293.15000000002345       297.3381328899464        305.45587285514364       312.528111984107         318.31106381940447       323.05954459142964       327.0021537044314        330.3085447725152        333.10401730409495       335.4830636434803        337.51856161099425
31.6                      293.15000000001197       297.0077577196486        304.84154682132777       311.7690444025909        317.47271680278965       322.1765503109434        326.0937797511564        329.3857137392714        332.17298249503426       334.5474299512248        336.58041783722484
32.400000000000006        293.1500000000032        296.6971412231784        304.2497275843257        311.03064437246013       316.653095688718         321.31067049063006       325.20120605035095       328.4776011151434        331.25576554989414       333.624857357309         335.65469431971786
33.199999999999996        293.1499999999968        296.4062834005356        303.6804151441372        310.31291189371456       315.85220047718934       320.4619051304893        324.3244326020151        327.58420690013094       330.3523664686745        332.71534586173277       334.7413910584732
34                        293.14999999999293       296.1351842517203        303.1336095007623        309.61584696635407       315.0700311682036        319.6302542305211        323.46345940614884       326.70553109423406       329.46278525137546       331.81889546449594       333.84050805349085
34.8                      293.14999999999185       295.8842660801781        302.6095501386758        308.9394555501235        314.30643483288225       318.8154618118774        322.6179624539862        325.84120342518594       328.5866191834179        330.9350800362166        332.9516018339333
35.6                      293.1499999999932        295.65360428862493       302.1086077973548        308.2841943675037        313.56190122426415       318.01803243662755       321.7884530299094        324.99173796037724       327.7243831620059        330.0644143537299        332.07518662042304
36.4                      293.1499999999967        295.4426236394244        301.6305860742421        307.6502356435475        312.83684329776827       317.23853257250653       320.9755977362517        324.1578686904632        326.8768579899183        329.2077127211584        331.2121013439666
37.2                      293.1500000000022        295.2513241325768        301.1754849693378        307.03757937825486       312.1312610533944        316.47696221951435       320.1793965730131        323.3395956154435        326.04404366715494       328.364975138502         330.36234600456436
38                        293.1500000000075        295.0781373945837        300.74219253044674       306.44529405384844       311.4443119272006        315.73252927117517       319.3990866715968        322.53617258950385       325.2252033543254        327.5354697154463        329.52519113250503
38.8                      293.15000000000543       294.90227460538324       300.28115652606834       305.80393848138203       310.69433150698904       314.91605715221056       318.5407636310145        321.65062420512254       324.32129505466304       326.6187115089265        328.5991070008808
39.6                      293.15000000000373       294.73596679867575       299.835891615808         305.1791461517274        309.9604063352274        314.11477361542234       317.6966826810103        320.7784002936621        323.42986684065465       325.7136770361827        327.68407900303293
40.4                      293.15000000000225       294.57921397446114       299.4063977996654        304.57091706488455       309.24253641191547       313.3286786608103        316.8668438215842        319.9195008551223        322.5509187123002        324.82036629721483       326.7801071389613
41.2                      293.1500000000015        294.4350167953757        298.9962059640227        303.9826003710822        308.5439115497562        312.560866817686         316.05428902167364       319.07694002231165       321.6874506854833        323.9417725940815        325.89018185848994
42                        293.1500000000008        294.2999303726705        298.6015108072431        303.4107842186902        307.8614147494451        311.80839770296575       315.2561795706464        318.24793725898525       320.8367156285279        323.0751681695452        325.01158685211493
42.800000000000004        293.1500000000004        294.1738179505719        298.22215647994153       302.85532481554316       307.19491176664286       311.071142787916         314.4723901793643        317.4323690801069        319.9985910510274        322.2204310774644        324.1442004706176
43.6                      293.1499999999999        294.05696859766687       297.85855708832673       302.31660739253033       306.5447543077331        310.34942987376          313.7032324343889        316.6305359523723        319.1733696032999        321.3778483172515        323.2883055115085
44.400000000000006        293.14999999999935       293.9498854678925        297.5115011687532        301.795438067064         305.9117334524059        309.64403513268854       312.94947118715635       315.8431944908149        318.3618019015687        320.54816606563          322.4446447917103
45.199999999999996        293.1499999999991        293.85175856743024       297.1798677563926        301.2908162381771        305.2949677277799        308.95415960437714       312.2103627417275        315.0696386243888        317.56320820037865       319.73072354974005       321.6125716118872
46                        293.14999999999895       293.76258789627974       296.86365685124474       300.80274190586954       304.69445713385494       308.27980328882563       311.4859070981022        314.30986835309386       316.77758849972946       318.92552076958145       320.79208597203876
46.8                      293.14999999999895       293.6823734544413        296.56286845330976       300.3312150701412        304.11020167063083       307.62096618603397       310.7761042562805        313.56388367693023       316.00494279962135       318.1325577251542        319.9831878721653
47.599999999999994        293.1499999999992        293.6111152419145        296.2775025625876        299.8762357309922        303.54220133810776       306.97764829600226       310.0809542162623        312.83168459589785       315.2452711000541        317.3518344164583        319.1858773122666
48.4                      293.1499999999993        293.5488132586998        296.0075591790782        299.43780388842237       302.99045613628573       306.3498496187304        309.40045697804766       312.1132711099966        314.4985734010278        316.5833508434938        318.4001542923427
49.2                      293.14999999999986       293.49546750479703       295.7530383027819        299.0159195424321        302.45496606516474       305.7375701542186        308.7346125416367        311.40864321922686       313.7648497025426        315.8271070062607        317.6260188123939
50                        293.15000000000043       293.451077980206         295.51393993369805       298.61058269302083       301.9357311247446        305.1408099024665        308.0834209070291        310.717800923588         313.0441000045981        315.0831029047589        316.8634708724196
50.8                      293.1500000000002        293.4294375914204        295.40944640730663       298.43499486509813       301.7111143455153        304.8826024309606        307.8014712190913        310.41844383257444       312.7315346624753        314.7602138341333        316.5323128908712
51.6                      293.15000000000015       293.4088439609642        295.3086408371414        298.26467213803846       301.49257586658916       304.6308553692521        307.5261268031601        310.12570895278657       312.42554195984286       314.443815712581         316.2075511642955
52.400000000000006        293.15000000000003       293.3892970888371        295.21152322320233       298.0996145118415        301.2801156879659        304.38556871734073       307.2573876592353        309.8395962842244        312.1261218967004        314.13390854010174       315.8891856926923
53.2                      293.15000000000003       293.3707969750394        295.1180935654896        297.93982198650735       301.07373380964583       304.1467424752267        306.9952537873171        309.56010582688793       311.8332744730482        313.83049231669577       315.5772164760616
54                        293.1499999999999        293.35334361957086       295.0283518640028        297.7852945620359        300.8734302316286        303.9143766429098        306.7397251874052        309.28723758077695       311.5469996888861        313.5335670423628        315.2716435144033
54.800000000000004        293.1499999999999        293.33674840577777       294.94226409180544       297.6361114441313        300.67934393021676       303.6886410390425        306.49098731193726       309.0211846381984        311.2674940854871        313.243330533858         314.9726648005061
55.599999999999994        293.14999999999986       293.3213483195178        294.860101830268         297.49246269372344       300.4916204747949        303.4696592913816        306.249153931191         308.7620571479154        310.99486729220945       312.9598933482624        314.6803924059638
56.4                      293.14999999999975       293.30704106158817       294.78163325568016       297.3540599015687        300.3099343887706        303.25707709071844       306.0138475504372        308.509458871167         310.7287078959753        312.68283177081435       314.39439262405443
57.199999999999996        293.14999999999975       293.29398478513565       294.7070568355865        297.22110334196555       300.1344906679748        303.0511076037356        305.7852906626395        308.2636213965324        310.46925572938545       312.41239282406633       314.1149186143808
58                        293.14999999999986       293.28223759725057       294.6364645339667        297.09369563307          299.9653998748464        302.85186876561465       305.5636078544911        308.02467509163716       310.2166460657505        312.14871588642234       313.84211316365065
58.8                      293.15                   293.27179949793293       294.5698563508209        296.97183677488204       299.80266200938553       302.6593605763558        305.3487991259919        307.79261995648113       309.97087890507055       311.8918009578826        313.57597627186396
59.6                      293.1500000000001        293.2626704871828        294.507232286149         296.8555267674016        299.64627707159195       302.47358303595877       305.14086447714186       307.5674559910642        309.7319542473453        311.6416480384468        313.3165079390207
60.4                      293.1500000000001        293.254313180576         294.44807313843165       296.7444515938551        299.49607907852385       302.29446386732377       304.93979089247915       307.3492086232904        309.49992327636556       311.3983261621495        313.06378998705475
61.2                      293.15000000000015       293.2461189916419        294.3913364817663        296.6376208744804        299.3511601861906        302.12115031805064       304.74475917821337       307.13707922461685       309.2740004172503        311.1610584696083        312.8170517336869
62                        293.15000000000015       293.2384224426476        294.33719404237127       296.5350184994637        299.2113837628707        301.9534304144392        304.5555092852094        306.9307761576254        309.0538726279152        310.9295169736615        312.5759544628905
62.800000000000004        293.15000000000003       293.23122353359315       294.2856458202466        296.436644468805         299.07674980856433       301.79130415648933       304.3720412134672        306.73029942231614       308.83953990836017       310.70370167430883       312.3404981746654
63.6                      293.15000000000003       293.2245222644786        294.236691815392         296.3424987825043        298.9472583232713        301.63477154420116       304.1943549629868        306.53564901868896       308.6310022585854        310.48361257155045       312.1106828690117
64.4                      293.15                   293.21831863530383       294.19033202780787       296.2525814405616        298.8229093069917        301.4838325775746        304.0224505337681        306.34682494674405       308.4282596785906        310.26924966538627       311.88650854592925
65.19999999999999         293.15                   293.212612646069         294.14656645749403       296.16689244297703       298.7037027597257        301.33848725660994       303.8563279258114        306.1638272064813        308.2313121683762        310.0606129558165        311.6679752054184
66                        293.15                   293.2073742530865        294.1053210732212        296.08534100028464       298.58953641097355       301.1986234306326        303.6958664505907        305.98652787429785       308.04002575733          309.8575634571295        311.45493971791535
66.8                      293.15                   293.2026053694677        294.06659746047427       296.007926960582         298.4804082016247        301.0642372776436        303.54106075016654       305.8149202875296        307.8543926869728        309.6600924947248        311.2473926438009
67.6                      293.15000000000003       293.1983426540882        294.0304848124043        295.93475894445925       298.3764398010368        300.9354616520517        303.39205333982375       305.6491551470556        307.6745704976829        309.46836327867544       311.0455018749455
68.4                      293.1499999999999        293.19458610694807       293.99698312901086       295.86583695191604       298.27763120920935       300.81229655385664       303.2488442195619        305.4892324528757        307.5005591894601        309.28237580898116       310.8492674113489
69.2                      293.15                   293.1913357280474        293.9660924102944        295.80116098295264       298.1839824261429        300.69474198305863       303.11143338938115       305.3351522049899        307.3323587623047        309.1021300856422        310.6586892530111
70                        293.15                   293.18854825651954       293.9376774316869        295.74053704793096       298.09525376130256       300.58252083551827       302.9795132452871        305.1865820970974        307.1696169574715        308.9272577309802        310.47338597507553
70.8                      293.1500000000001        293.1854908629891        293.9069366311986        295.67434014739655       297.99748904496914       300.457944495631         302.83219495453          305.01988705761227       306.9863372908734        308.7297270997994        310.2635678552076
71.6                      293.15000000000003       293.1826925470855        293.87837049780234       295.61203085659736       297.9045019917907        300.33849003723384       302.69004710996137       304.85826356619145       306.807964003179         308.5369145988799        310.05827880823693
72.4                      293.15                   293.18014166467105       293.8519835338004        295.55364653498225       297.816354417187         300.22423593885674       302.5531598492401        304.7018102604434        306.6346021596092        308.348930297616         309.8576328875185
73.2                      293.1499999999999        293.1778414236866        293.82769050883235       295.4989849975896        297.7327484970229        300.1148104036233        302.42110401480664       304.5500530363053        306.46574206555056       308.16523605329655       309.6610690228808
74                        293.1499999999999        293.1757918241324        293.8054914228982        295.44804624441974       297.6536842312987        300.010213431534         302.29387960666116       304.40299189377754       306.30138372100384       307.9858318659216        309.4685872143239
74.80000000000001         293.15000000000003       293.17399286600823       293.78538627599795       295.40083027547263       297.57916162001425       299.91044502258865       302.1714866248038        304.26062683285977       306.1415271259687        307.8107177354912        309.28018746184785
75.6                      293.1499999999999        293.17244454931415       293.7673750681316        295.357337090748         297.50918066316945       299.81550517678716       302.05392506923425       304.1229578535521        305.9861722804451        307.6398936620051        309.0958697654524
76.39999999999999         293.15000000000003       293.17114687405035       293.75145779929926       295.31756669024634       297.4437413607646        299.7253938941299        301.9411949399529        303.9899849558548        305.83531918443333       307.4733596454638        308.91563412513796
77.2                      293.1499999999999        293.17009984021644       293.7376344695005        295.281519073967         297.3828437127993        299.64011117461627       301.83329623695914       303.86170813976736       305.68896783793286       307.31111568586664       308.7394805409039
78                        293.1500000000001        293.1693034478129        293.725905078736         295.2491942419106        297.326487719274         299.5596570182469        301.7302289602537        303.73812740529036       305.54711824094437       307.1531617832143        308.567409012751
78.8                      293.14999999999986       293.1687576968392        293.716269627005         295.2205921940765        297.274673380188         299.48403142502116       301.63199310983583       303.6192427524231        305.409770393467         306.999497937506         308.3994195406784
79.6                      293.1499999999998        293.16846258729566       293.70872811430803       295.1957129304652        297.227400695542         299.41323439493954       301.5385886857061        303.5050541811661        305.27692429550143       306.8501241487424        308.23551212468675
